LAMMPS data file via write_data, version 31 Aug 2021, timestep = 500000

1536 atoms
6 atom types

-0.02621091011722143 25.991610910118006 xlo xhi
-0.02621091011722143 25.991610910118006 ylo yhi
-0.02621091011722143 25.991610910118006 zlo zhi

Masses

1 138.905
2 91.224
3 15.9998
4 6.941
5 6.941
6 69.723

Pair Coeffs # buck/coul/long

1 0 1 0
2 0 1 0
3 13215.1 0.221282 25.3427
4 0 1 0
5 0 1 0
6 0 1 0

Atoms # full

2 0 1 2.1 11.420728250713603 6.583527657749587 3.23149126214392 0 0 0
170 0 4 0.7 12.474072743956954 2.054427508322066 4.201160144595358 0 0 0
137 0 4 0.7 9.200561889480255 7.389795345833662 1.2001197424402648 0 0 0
147 0 4 0.7 1.3583365974311963 10.620631336378533 0.709878619974851 0 0 0
5 0 1 2.1 0.07188429976362504 9.660266465850357 4.860810080795441 0 0 0
526 0 4 0.7 3.8410939453228945 12.055036100420907 1.1245728172577865 0 0 0
14 0 1 2.1 6.455972641066939 9.729726131986656 1.6711853371696017 0 0 0
16 0 1 2.1 6.700429274835862 3.318998491862561 4.904991256126242 0 0 0
161 0 4 0.7 5.063523115411615 9.047244593184152 5.631112010772577 0 0 0
425 0 2 2.8 6.579533087622734 12.93707760033385 0.0312350533831421 0 0 0
171 0 4 0.7 10.490057190916497 0.8516913755626574 1.4851230246347598 0 0 0
24 0 1 2.1 4.86021989487109 6.448877639063858 3.3120864304524966 0 0 0
167 0 4 0.7 1.8560594019907932 2.3498434896680647 5.814085607457161 0 0 0
29 0 2 2.8 9.679029249333434 9.821842564317496 3.305663551016629 0 0 0
30 0 2 2.8 3.3573924951541794 3.1770837639364267 3.3677609480301403 0 0 0
173 0 4 0.7 0.7654138417477104 4.4206584314402395 4.1358298752189695 0 0 0
33 0 2 2.8 3.2129684695259826 9.785868310479934 3.2739611447493426 0 0 0
35 0 2 2.8 9.777917118178557 3.2925883614907994 3.3561048070906896 0 0 0
188 0 4 0.7 7.107448009093013 8.301661358153595 4.039619922462388 0 0 0
169 0 4 0.7 11.356380263162352 4.14710744401097 5.844198807563849 0 0 0
42 0 3 -1.4 0.3181598110408832 7.262334409130581 4.757747649502237 0 0 0
44 0 3 -1.4 12.600480281431935 0.6803952138205397 1.8455103459049795 0 0 0
45 0 3 -1.4 11.591028958852197 9.151403453762248 2.89034036362395 0 0 0
46 0 3 -1.4 1.4561057831588147 2.5214642168339605 3.6369712213285386 0 0 0
50 0 3 -1.4 10.437738591119109 10.21082135831091 5.2329026251459885 0 0 0
51 0 3 -1.4 2.6193325133912406 3.5706605939797242 1.325301750601856 0 0 0
52 0 3 -1.4 9.327496903062753 7.894378251323279 4.086368392089197 0 0 0
56 0 3 -1.4 3.5443808085283144 1.378072894545585 2.5078121638932855 0 0 0
59 0 3 -1.4 7.967668075073646 2.4070831830975177 2.9936745231861486 0 0 0
60 0 3 -1.4 7.77199070615302 10.44589831713221 3.6474501834549513 0 0 0
64 0 3 -1.4 5.156357619695737 3.9277263140889866 2.979081600890684 0 0 0
67 0 3 -1.4 0.29948181877882785 5.746780901434156 1.9005712225669775 0 0 0
69 0 3 -1.4 8.908880479443221 9.392320154507775 1.3262464278486543 0 0 0
70 0 3 -1.4 3.975046932249283 2.938685527017494 5.257101120293368 0 0 0
71 0 3 -1.4 10.110541745176569 11.672363485643347 2.506306860222315 0 0 0
72 0 3 -1.4 12.552750553889354 12.378203936878569 4.532391681613355 0 0 0
73 0 3 -1.4 10.34248794934607 1.4785649248278574 3.881161611757364 0 0 0
76 0 3 -1.4 2.9475975156671312 5.197906295128559 4.055419704732835 0 0 0
77 0 3 -1.4 4.679275957100714 6.129420889367698 0.9085678280508016 0 0 0
78 0 3 -1.4 5.564046800576981 11.088745725243804 6.2907824587471834 0 0 0
82 0 3 -1.4 8.130218343724943 12.718565041314102 5.709760717298204 0 0 0
85 0 3 -1.4 7.318999336974442 4.6046042239972405 0.33958590769123737 0 0 0
88 0 3 -1.4 0.7996619134796505 4.627942090677533 6.248560229691676 0 0 0
91 0 3 -1.4 10.899258870637306 6.155596281082727 5.861478973448049 0 0 0
92 0 3 -1.4 12.234710476612674 11.057927576870206 0.3780837720359056 0 0 0
93 0 3 -1.4 1.8379919266245786 12.541039963352512 0.5140386919495029 0 0 0
94 0 3 -1.4 6.050346475873862 0.6389354470152687 4.510625483970926 0 0 0
96 0 3 -1.4 6.963291306039454 7.283664903045356 1.9005906772107586 0 0 0
97 0 3 -1.4 1.2736646343849647 10.43162307141134 2.8140825680305848 0 0 0
99 0 3 -1.4 11.715472678995939 3.9632738253419846 3.705902230606047 0 0 0
101 0 3 -1.4 10.543054476115577 2.91405702004583 1.3234435549281929 0 0 0
102 0 3 -1.4 2.5644647225817723 9.273074296466326 5.223848478943558 0 0 0
106 0 3 -1.4 9.590429171120912 5.098074261344452 2.4588088036052405 0 0 0
107 0 3 -1.4 3.496701052831632 11.706455052813306 4.004625479290555 0 0 0
109 0 3 -1.4 5.0507224274368046 9.040539014621878 3.637055624704661 0 0 0
111 0 3 -1.4 9.04422463863933 3.66700531952793 5.225194669046451 0 0 0
112 0 3 -1.4 4.098514325230982 9.988441699257331 1.4306824250412493 0 0 0
115 0 3 -1.4 2.8067406210489927 7.8067767615908155 2.461796755918377 0 0 0
119 0 3 -1.4 8.418873146842147 0.3634014055007073 0.8598628251826422 0 0 0
120 0 3 -1.4 4.691326286677087 6.967842558881817 5.886671872802744 0 0 0
122 0 3 -1.4 12.236893334204378 1.835157158055307 6.187436404793623 0 0 0
123 0 3 -1.4 0.699303643005881 8.45115475709142 0.2745145944464541 0 0 0
126 0 3 -1.4 6.143587606233673 12.20879937165862 1.9290218919745863 0 0 0
128 0 3 -1.4 6.981924019834939 5.865191960551199 4.730380688237747 0 0 0
129 0 3 -1.4 1.8092951744464887 0.342809488319731 5.735243157220272 0 0 0
130 0 3 -1.4 11.150991480911989 7.0019701449770295 0.7146347136554054 0 0 0
133 0 3 -1.4 5.837813135603953 1.9824101171353905 0.4982493845494037 0 0 0
136 0 3 -1.4 7.203710274831781 8.546626417169957 6.121984506169215 0 0 0
195 0 4 0.7 9.061628390431627 5.745218253061958 5.047299000530456 0 0 0
138 0 4 0.7 11.180409962891568 8.861235233935773 0.7400710347639554 0 0 0
139 0 4 0.7 5.530844943583306 10.938396870707471 4.34897340825754 0 0 0
164 0 4 0.7 5.527324142465283 1.1783105511496734 2.503605437613262 0 0 0
559 0 4 0.7 3.8271805024227734 0.7832035925457825 4.980356843096587 0 1 0
159 0 4 0.7 10.776791186711824 12.39135540053719 4.317486821982966 0 0 0
157 0 4 0.7 8.60475383252078 2.2680263817371324 0.9044252707103365 0 0 0
155 0 4 0.7 4.528849380241805 4.224759236752303 0.7548403495213192 0 0 0
19 0 1 2.1 9.80903430344904 11.361694035590073 0.030221890134296762 0 0 0
938 0 4 0.7 12.070032275096372 11.563436184110989 2.4320224723388337 0 0 0
141 0 4 0.7 2.1057458336719805 7.091384417040259 4.245167956237535 0 0 0
163 0 4 0.7 6.606376529996542 3.4474401041227702 1.7777420298817164 0 0 0
160 0 4 0.7 8.016247306380873 6.263185282546498 3.0440854485549456 0 0 0
185 0 4 0.7 7.896973694090794 10.562307760148938 5.624838621850207 0 0 0
162 0 4 0.7 2.3799262269560617 5.787949941960544 1.8824406306058652 0 0 0
158 0 4 0.7 0.6751378011330176 8.228536626766118 2.2910497541613664 0 0 0
6 0 1 2.1 0.004496229385808768 3.2396623029203635 1.5547971197127117 0 0 0
17 0 1 2.1 3.2173801800993163 8.090128944414952 0.043123042162325625 0 0 0
8 0 1 2.1 9.787129962360241 4.924919482316549 0.01662811610626782 0 0 0
11 0 1 2.1 3.2534156784072605 1.6584140638733287 0.07965581491216102 0 0 0
21 0 1 2.1 8.146690468840795 -0.014044930912587949 3.2985221928720407 0 0 0
10 0 1 2.1 9.699394184785726 8.252619532834059 6.417285019594507 0 0 0
31 0 2 2.8 6.515638818277507 6.485398693512102 0.08416766575500519 0 0 0
38 0 2 2.8 0.01029343656382161 6.5403799605838095 -0.004645432831547336 0 0 0
39 0 2 2.8 6.6006205234498205 0.06600643486045017 0.022467942702877275 0 0 0
791 0 2 2.8 12.928464087259902 6.522557255178102 6.438731226281547 0 0 0
18 0 1 2.1 9.823643525596228 1.5647372893410953 6.45978432157561 0 0 0
1 0 1 2.1 6.453647183879956 3.2003844687290113 11.270020811804935 0 0 0
3 0 1 2.1 6.478337950116252 9.785253126880775 8.212904345385844 0 0 0
9 0 1 2.1 4.731809699086827 0.013221194610347604 9.627437736741058 0 0 0
395 0 1 2.1 4.732861208977938 12.890579983848957 9.888738170135062 0 0 0
1289 0 4 0.7 11.790887756013465 10.630316114806847 7.132002407934718 0 0 0
12 0 1 2.1 8.300453069356152 6.565030976551935 9.782792466528955 0 0 0
181 0 4 0.7 11.364119905569197 6.53099854168675 9.755310539416985 0 0 0
95 0 3 -1.4 12.503051176306354 5.777161314965606 8.34374366434425 0 0 0
361 0 4 0.7 8.752989588552053 0.48897357621451276 10.842008464765065 0 0 0
352 0 4 0.7 1.3217021340664203 3.9343687390072364 12.234038109826532 0 0 0
22 0 1 2.1 1.5651850050040719 6.368226703182293 9.837204265953762 0 0 0
26 0 2 2.8 0.08427911528563338 6.506246505565464 6.570805341046709 0 0 0
25 0 2 2.8 9.73844283460148 3.2323067462715107 9.73204497684319 0 0 0
187 0 4 0.7 5.931772941170824 8.480105359990807 10.65947275562542 0 0 0
27 0 2 2.8 3.198047573022336 9.644303806269315 9.825116377089158 0 0 0
992 0 2 2.8 12.966920339768212 6.3906266241649465 12.934164639952 0 0 0
34 0 2 2.8 3.2361290853714797 3.187425416924525 9.782464714633916 0 0 0
36 0 2 2.8 9.799286401024382 9.862950459877673 9.730966630432889 0 0 0
713 0 4 0.7 5.242611872224898 10.397134821752273 12.126849736599619 0 0 0
156 0 4 0.7 8.627562963431638 12.47443552718644 8.889269396204437 0 0 0
41 0 3 -1.4 7.829166521276185 3.9979753351471663 9.251358107569194 0 0 0
43 0 3 -1.4 5.103413647609427 10.469737511832909 10.249935696141717 0 0 0
47 0 3 -1.4 3.9944333102387004 9.331224649718383 7.89898991643032 0 0 0
48 0 3 -1.4 8.921739456718345 2.8432279458694727 11.614218520614736 0 0 0
49 0 3 -1.4 6.724013435771751 12.43750619645409 8.489276975628348 0 0 0
53 0 3 -1.4 6.300609328835762 5.645742752751218 11.06727058008157 0 0 0
54 0 3 -1.4 2.8296995321624117 11.529541509081948 9.03407622200378 0 0 0
55 0 3 -1.4 10.14826059422165 5.034809055811746 10.51198922281936 0 0 0
57 0 3 -1.4 11.66038060870254 2.542083652332797 10.094195331807512 0 0 0
58 0 3 -1.4 6.759628625431817 0.6390150710252517 10.85828796149814 0 0 0
61 0 3 -1.4 6.361058304566289 7.279682757698086 8.652896033002113 0 0 0
62 0 3 -1.4 1.284575456517165 3.8452012811154654 10.162640044492957 0 0 0
63 0 3 -1.4 1.3144423483410246 9.07668188158989 9.402490120845568 0 0 0
65 0 3 -1.4 2.3965757776661967 9.889781433031336 11.663844775040548 0 0 0
66 0 3 -1.4 10.424538414097725 3.6037311473848224 7.831096095988317 0 0 0
68 0 3 -1.4 2.316071090024021 2.7405063042452458 7.875612089713931 0 0 0
74 0 3 -1.4 3.708912773630406 7.896037997022777 10.37863094290474 0 0 0
75 0 3 -1.4 9.428881144294492 1.3341788459753632 8.98916745696265 0 0 0
79 0 3 -1.4 0.35678984246408374 12.09985784226468 11.159327853066271 0 0 0
80 0 3 -1.4 8.393738643862987 6.880378138617161 12.349247622746056 0 0 0
81 0 3 -1.4 7.329598777763691 1.8177541028185413 6.854110751494788 0 0 0
83 0 3 -1.4 12.288601707405471 8.465045974127417 6.718934931158154 0 0 0
84 0 3 -1.4 1.8672253129606395 6.8585789960903085 7.447494487484789 0 0 0
86 0 3 -1.4 11.159053967549465 0.4704482963185976 12.267484331091389 0 0 0
87 0 3 -1.4 0.7205189985651563 1.815567992119498 12.519458091528849 0 0 0
89 0 3 -1.4 4.454481956386758 0.3539820163876385 7.0877851118037825 0 0 0
90 0 3 -1.4 5.859868557099443 8.31944446888408 12.64377151076875 0 0 0
1491 0 4 0.7 11.638319508175583 2.561324739215544 12.074151895247837 0 1 0
98 0 3 -1.4 5.10430382660497 2.4280769514324785 9.256451762250327 0 0 0
100 0 3 -1.4 7.958500678417004 9.132947561869008 10.142299400613613 0 0 0
103 0 3 -1.4 3.9967149185847903 3.4013028148336972 11.58831476518905 0 0 0
104 0 3 -1.4 8.966344040904286 10.270257563692313 7.8848919275987965 0 0 0
105 0 3 -1.4 2.852927301593992 1.2118739866864678 10.404571871878606 0 0 0
108 0 3 -1.4 10.185446160130189 7.993414425048309 8.956505569703 0 0 0
110 0 3 -1.4 11.661782653410176 10.553207239091618 9.322109500552891 0 0 0
113 0 3 -1.4 10.46354493198166 9.500560308923642 11.657955102088028 0 0 0
114 0 3 -1.4 3.6854817948718703 5.118613817619075 9.012808458940082 0 0 0
116 0 3 -1.4 9.436316426951137 11.775350125310256 10.519351993922157 0 0 0
117 0 3 -1.4 11.181126575468976 12.806093869029244 7.130493977530099 0 0 0
118 0 3 -1.4 1.9212951809276146 6.099825032448251 12.12664987669004 0 0 0
121 0 3 -1.4 7.260086717097497 11.080003279213749 12.81458213302412 0 0 0
124 0 3 -1.4 5.86175284810432 4.61404722800383 6.965359850435037 0 0 0
145 0 4 0.7 2.419980344052985 0.7512656592584162 7.69619483910785 0 0 0
127 0 3 -1.4 0.31643507089064077 0.6626104826212375 8.36841095710561 0 0 0
131 0 3 -1.4 4.6334430527281585 12.65316502343411 12.476438363626013 0 0 0
132 0 3 -1.4 8.450459278327239 6.289499062354567 7.24490136186408 0 0 0
134 0 3 -1.4 0.689978841741665 11.109676432208584 6.813591899841784 0 0 0
135 0 3 -1.4 12.168041680988155 4.510549654235045 12.539253858525642 0 0 0
194 0 4 0.7 7.287170045099633 11.289392939580228 10.635867619602516 0 0 0
180 0 4 0.7 5.9073418769116515 5.068197388320866 8.916061170465202 0 0 0
143 0 4 0.7 6.556257584450011 3.0950548771244644 8.079841410348873 0 0 0
189 0 4 0.7 0.7848834668222471 11.266044356714612 8.902056364027043 0 0 0
927 0 4 0.7 1.0669375844206526 9.36806093904063 7.6459218450487425 1 0 0
149 0 4 0.7 4.241272540929276 7.283014819865112 8.363745591416853 0 0 0
192 0 4 0.7 8.58281610262813 4.211034775092227 7.158960016489547 0 0 0
125 0 3 -1.4 12.590240046392985 7.141030103803118 11.190198512754185 0 0 0
154 0 4 0.7 4.526671063236117 6.082503752389495 10.527149881191828 0 0 0
148 0 4 0.7 10.366583299861468 5.661261349467836 7.691683888530964 0 0 0
190 0 4 0.7 7.43870015642529 1.1399256016578523 8.77821373619939 0 0 0
175 0 4 0.7 4.400191481277844 2.3180136837256766 7.05716919821868 0 0 0
182 0 4 0.7 12.325361589183148 8.69462846957237 8.71926068763346 0 0 0
168 0 4 0.7 8.259854325787845 8.8775440854836 12.426681732003434 0 0 0
174 0 4 0.7 0.6703989381982749 1.9087505931482074 10.474169725034315 0 0 0
931 0 4 0.7 12.293376230009494 4.451987790184985 10.638206683524098 0 0 0
179 0 4 0.7 10.378650012262664 7.476218463095579 12.056411561026083 0 0 0
530 0 4 0.7 3.097505739676344 11.285905671259492 12.673670137507637 0 0 0
7 0 1 2.1 3.098970863533767 11.334765712141195 6.547075209013046 0 0 0
23 0 1 2.1 11.318532415421245 0.029280387109373397 9.693981539898319 0 0 0
574 0 4 0.7 1.6792245866019122 12.945771765802958 9.95624477585078 0 0 0
207 0 1 2.1 3.2345506027052364 1.5991881309047087 12.922162592219323 0 0 0
227 0 2 2.8 6.507832253908929 6.396758899124789 12.961157836815786 0 0 0
196 0 4 0.7 1.6081864331932232 0.03814413511465986 9.625517749513198 0 0 0
20 0 1 2.1 3.2953778109106993 5.01051431892709 6.50756343975873 0 0 0
40 0 2 2.8 6.615780898568795 6.544734993629115 6.627823543868791 0 0 0
142 0 4 0.7 3.373376830980668 4.891182181041225 12.75261151009929 0 0 0
780 0 1 2.1 12.930614223066472 9.764512613552924 11.380642750528102 0 0 0
602 0 2 2.8 0.08693483225407049 12.884513639253845 12.976691370237596 0 0 0
905 0 4 0.7 9.558165275001175 11.657296637222588 6.552520187603311 0 0 0
184 0 4 0.7 3.172758942029414 8.19069582529141 6.62752785979661 0 0 0
198 0 1 2.1 11.382119614966767 6.324956402487886 16.21464846801041 0 0 0
363 0 4 0.7 10.603444058347648 0.5927826772981928 15.059686079058537 0 0 0
342 0 4 0.7 7.48248523637545 4.584562213094788 15.24940712925167 0 0 0
353 0 4 0.7 5.037206650665622 9.18391965940344 18.550840644329803 0 0 0
1105 0 4 0.7 12.350161092500969 11.006290250528023 15.510602561975766 0 0 0
959 0 1 2.1 12.94136103798966 9.776950385503937 18.06620251960246 0 0 0
210 0 1 2.1 6.596142589864491 9.690814601727439 14.63902761843871 0 0 0
212 0 1 2.1 6.48990301921084 3.285522206071998 17.987664411626987 0 0 0
274 0 3 -1.4 5.78580538278286 10.997318152049754 19.196737820209375 0 0 0
340 0 4 0.7 9.132815923574608 5.527864357340502 18.392094729843958 0 0 0
380 0 4 0.7 0.8101733611073143 4.729705358514907 16.827775989684273 0 0 0
220 0 1 2.1 4.9195823391684055 6.502702252346893 16.330037196325275 0 0 0
166 0 4 0.7 5.196522441870169 3.911519469427273 14.000761034484903 0 0 0
225 0 2 2.8 9.814046282803561 9.588034099491557 16.331007118564305 0 0 0
226 0 2 2.8 3.335753546296926 3.1901129572763853 16.302134708983406 0 0 0
366 0 4 0.7 1.1925331502445924 2.5820699078478264 18.53306555986181 0 0 0
229 0 2 2.8 3.2213427374216748 9.708056390029304 16.224659925714068 0 0 0
231 0 2 2.8 9.734939237548797 3.1731845376663923 16.354468689554317 0 0 0
335 0 4 0.7 2.201842643599076 7.168667729063946 17.40871250147856 0 0 0
385 0 4 0.7 12.20457271005447 1.258269039271154 16.975278601550404 0 0 0
238 0 3 -1.4 0.31037085796185077 7.147752857711242 17.654232914880193 0 0 0
240 0 3 -1.4 12.511823983802987 0.5432961809135549 14.78941967125318 0 0 0
241 0 3 -1.4 11.71372493361086 8.948986092734241 15.932787799633546 0 0 0
242 0 3 -1.4 1.3114241149840213 2.6183185335293104 16.445254753445113 0 0 0
246 0 3 -1.4 10.522041884176234 10.059843320876302 18.190619535517655 0 0 0
247 0 3 -1.4 2.5071969188871264 3.655824214539534 14.217418523049535 0 0 0
248 0 3 -1.4 9.39733930777575 7.804354807502183 17.033965963534754 0 0 0
252 0 3 -1.4 3.6452880628203714 1.4077938764004496 15.527521472761501 0 0 0
255 0 3 -1.4 7.879524934343387 2.497969596205902 15.803126505725926 0 0 0
256 0 3 -1.4 7.96427668503254 10.330078327239416 16.494466825657113 0 0 0
260 0 3 -1.4 5.201345522664547 3.8965249597755025 15.867413744220132 0 0 0
263 0 3 -1.4 0.3740695698602987 5.82244262681241 14.913196509695965 0 0 0
265 0 3 -1.4 9.227081309652027 9.390120621863566 14.357333299967733 0 0 0
266 0 3 -1.4 4.01541707402957 2.890147068756374 18.214956041590632 0 0 0
267 0 3 -1.4 10.311895161453517 11.472949329245257 15.718596010996876 0 0 0
1095 0 4 0.7 7.559036516078128 10.33602537491839 18.578057703692064 0 0 0
269 0 3 -1.4 10.038931997291877 1.2068854157783542 16.982711126608372 0 0 0
272 0 3 -1.4 3.0709093224403587 5.130628218805003 16.887837592144283 0 0 0
273 0 3 -1.4 4.640753851917433 6.124251453426302 13.641640352097445 0 0 0
357 0 4 0.7 7.731717226298425 2.5201782891343583 13.68383976712862 0 0 0
278 0 3 -1.4 8.369491055489831 12.60083867944592 18.879277389592225 0 0 0
281 0 3 -1.4 7.107356449200354 4.379823571113819 13.280675794380173 0 0 0
284 0 3 -1.4 0.6321931221427222 4.650205674129977 19.0550342547615 0 0 0
287 0 3 -1.4 11.198619826807194 6.112002097770957 18.834136912507795 0 0 0
288 0 3 -1.4 12.195214233033104 11.065350599831156 13.382414019147753 0 0 0
289 0 3 -1.4 1.9565035739528631 12.586307620046176 13.758029844026542 0 0 0
290 0 3 -1.4 6.053369239198137 0.7629098380792548 17.50808170089928 0 0 0
292 0 3 -1.4 7.001227579237456 7.129280359195867 14.840615423256793 0 0 0
293 0 3 -1.4 1.3781573934720361 10.47831003855622 15.901276237385698 0 0 0
295 0 3 -1.4 11.599112020352319 3.929428876448085 16.776656312373504 0 0 0
297 0 3 -1.4 10.56656952680415 2.8548233654863258 14.46534413370503 0 0 0
298 0 3 -1.4 2.581952143041271 9.160702277507434 18.072464199248543 0 0 0
302 0 3 -1.4 9.36080202011401 5.002128025114427 15.612101304220051 0 0 0
303 0 3 -1.4 3.525644348636635 11.549979598885832 17.039385766698278 0 0 0
305 0 3 -1.4 5.296603601501838 8.99788493652423 16.51417812262514 0 0 0
307 0 3 -1.4 8.986870149625423 3.4966292032777067 18.257872373455434 0 0 0
308 0 3 -1.4 3.8340243593268952 10.046659329881242 14.314037382571085 0 0 0
311 0 3 -1.4 2.9020612792998652 7.764902537054627 15.57465815361365 0 0 0
315 0 3 -1.4 8.347785614171729 0.3425487895646309 13.641540855291229 0 0 0
316 0 3 -1.4 4.719224670294673 7.086867687327414 18.79784902746387 0 0 0
318 0 3 -1.4 12.168412146332804 1.953353057183067 19.098817294801865 0 0 0
319 0 3 -1.4 0.8303756131901953 8.326199055641808 13.536248767264166 0 0 0
322 0 3 -1.4 6.216250637703419 12.29636904420616 14.961303838310483 0 0 0
324 0 3 -1.4 6.932449724041402 5.676794463461402 17.73521067268665 0 0 0
325 0 3 -1.4 1.8281505635630844 0.5291711743736764 18.618975174064097 0 0 0
326 0 3 -1.4 11.106955888231713 6.700868468362839 13.747939167816781 0 0 0
329 0 3 -1.4 5.740867764052643 1.8734942548889764 13.0912179467535 0 0 0
332 0 3 -1.4 7.190165780095045 8.346877137813772 19.160910228947188 0 0 0
228 0 2 2.8 6.383107017361597 0.0590680969035739 19.389587215753547 0 0 0
334 0 4 0.7 8.063450935642603 6.275151258342592 16.36367608469867 0 0 0
200 0 1 2.1 1.5444376685628718 -0.0012806366846546055 16.205190735077995 0 0 0
152 0 4 0.7 9.391575384879577 7.535831939181329 14.085779822958207 0 0 0
722 0 4 0.7 10.669958056306344 12.270561280440932 17.595420232666893 0 0 0
374 0 4 0.7 7.185466370794433 8.601668540686752 17.288760186808513 0 0 0
268 0 3 -1.4 12.639609124014354 12.196186316699128 17.724895545300924 0 0 0
362 0 4 0.7 6.01763527255415 1.9356811209128424 15.4177638600547 0 0 0
1119 0 4 0.7 11.05701090136654 4.014167527717941 18.968657411886173 0 0 0
343 0 4 0.7 1.5208319887479194 10.285536194775633 13.918594522241692 0 0 0
371 0 4 0.7 1.0123995014000953 7.871992154205536 15.54449166034124 0 0 0
360 0 4 0.7 2.3192026845774354 5.56699791608193 14.921593765610144 0 0 0
732 0 4 0.7 4.104184340482417 12.174790964857328 14.70267106464765 0 0 0
204 0 1 2.1 9.659369873284012 4.768621743303389 13.114373849040835 0 0 0
595 0 1 2.1 8.106672955275338 12.876530665273023 16.332261300160063 0 0 0
743 0 4 0.7 5.715988835195782 11.298184116492056 16.879272292677975 0 0 0
1125 0 4 0.7 11.590491168576674 8.858261764521966 14.082151072872714 0 0 0
372 0 4 0.7 3.777164053536078 0.7994771852613195 18.014522428726423 0 0 0
234 0 2 2.8 0.034416606849868046 6.509028424385201 13.043131797027073 0 0 0
578 0 1 2.1 1.5593429241085932 12.913514259740706 16.178833173089025 0 0 0
213 0 1 2.1 3.2584579449946136 8.01907067326433 13.006419910250903 0 0 0
215 0 1 2.1 9.761382577989346 11.37695194359269 13.03023796102765 0 0 0
233 0 2 2.8 0.04311157424652502 0.05737496393161226 19.485558314562645 0 0 0
354 0 4 0.7 9.787714019390545 1.6092707353346571 13.035928746238179 0 0 0
197 0 1 2.1 6.5331522322421085 3.290552556367437 24.35033363841089 0 0 0
199 0 1 2.1 6.50416675752948 9.617049188912583 21.252183073553358 0 0 0
1139 0 4 0.7 9.793525025536868 11.44550282236767 19.591819932429573 0 0 0
376 0 4 0.7 7.357195129852001 1.074508114633844 22.096954404892124 0 0 0
341 0 4 0.7 0.8846561682360015 1.4112847978891063 23.384616055820675 0 0 0
208 0 1 2.1 8.170061587024357 6.5333519961464175 22.77870163035775 0 0 0
177 0 4 0.7 8.54760805656629 8.983102436117225 25.363947580179804 0 0 -1
370 0 4 0.7 10.78363521645122 5.866782618830736 21.477072827161212 0 0 0
321 0 3 -1.4 12.74746511085491 7.181029920191264 24.14461670939929 0 0 0
377 0 4 0.7 10.657260995499849 7.31675562172519 24.661542306698944 0 0 0
218 0 1 2.1 1.572958757726121 6.4979485516328985 22.73297353649087 0 0 0
236 0 2 2.8 6.536113700796554 6.491563942172265 19.579835371028146 0 0 0
221 0 2 2.8 9.797483219524532 3.1979662804236613 22.71059855890656 0 0 0
356 0 4 0.7 0.18675527177335857 9.911110510982253 21.12566606893775 0 0 0
223 0 2 2.8 3.2095762342122454 9.61253516713293 22.732074117277357 0 0 0
337 0 4 0.7 0.8657827359091826 11.775301770970959 22.350633695555896 0 0 0
230 0 2 2.8 3.23880016230897 3.187759678120771 22.799210173316165 0 0 0
232 0 2 2.8 9.835715516213941 9.750058890324556 22.712036302419797 0 0 0
291 0 3 -1.4 12.676142642733591 5.787113936631121 21.536191341683054 0 0 0
375 0 4 0.7 5.4988284643245375 7.655105905385415 23.603377738708076 0 0 0
237 0 3 -1.4 7.8207438644350455 4.021481768072486 22.402122691778917 0 0 0
239 0 3 -1.4 5.098425693200649 10.39175284158978 23.155282490907265 0 0 0
243 0 3 -1.4 3.9448058951991407 9.326011800092047 20.92047717808873 0 0 0
244 0 3 -1.4 9.037733717653683 2.8161395199882246 24.595753993852977 0 0 0
245 0 3 -1.4 6.789333206909296 12.273151732934084 21.597568030323966 0 0 0
249 0 3 -1.4 6.1926580847311685 5.740856028731127 24.12211251748742 0 0 0
250 0 3 -1.4 2.7783592159815926 11.55815488244246 21.99859962064756 0 0 0
251 0 3 -1.4 10.083923849241852 5.081448625752355 23.44542095648422 0 0 0
253 0 3 -1.4 11.635724070207479 2.512913715936649 23.133899627710388 0 0 0
254 0 3 -1.4 6.8792723247707475 0.6190223968228251 24.073300955985687 0 0 0
257 0 3 -1.4 6.185202986587079 7.226591630921626 21.506615272981865 0 0 0
258 0 3 -1.4 1.3550150301622068 3.9246759731153924 23.052925168923405 0 0 0
259 0 3 -1.4 1.2361082487663813 8.883914093637912 22.53079872190449 0 0 0
261 0 3 -1.4 2.5541324722209726 10.15877995376717 24.71794128691364 0 0 0
262 0 3 -1.4 10.516168562608266 3.679785623405084 20.934238435682442 0 0 0
264 0 3 -1.4 2.5837188572152154 2.9230730371637272 20.966300446606404 0 0 0
270 0 3 -1.4 3.6226272694079578 7.780103378283236 23.4690265059175 0 0 0
271 0 3 -1.4 9.393113782165955 1.2958779493598793 22.038595532203217 0 0 0
275 0 3 -1.4 0.1614364336693045 12.245631185195643 24.109319413074292 0 0 0
276 0 3 -1.4 8.45350428916123 6.893444313197386 25.3486988125471 0 0 0
277 0 3 -1.4 7.298006144473792 1.966629279701661 19.92910970096388 0 0 0
279 0 3 -1.4 12.371934036015041 8.291608255938543 19.919607484014723 0 0 0
280 0 3 -1.4 1.9212431779496326 6.667675841561683 20.198287877557558 0 0 0
282 0 3 -1.4 11.001951183045376 0.3637607159732247 25.218931639250226 0 0 0
283 0 3 -1.4 0.7461822112013021 1.8299138128720074 25.59592935669829 0 0 0
285 0 3 -1.4 4.4700386504520075 0.4038505013013993 20.138970315477113 0 0 0
286 0 3 -1.4 5.719462643440033 8.2923088542991 25.642907537313146 0 0 0
345 0 4 0.7 11.928521873365268 5.497806738978081 23.35911022453478 0 0 0
294 0 3 -1.4 5.183543250622812 2.5366411192943 22.464012713246927 0 0 0
296 0 3 -1.4 7.929455529220219 9.101091701555081 23.24828258403232 0 0 0
299 0 3 -1.4 3.886432025133194 3.544905073409249 24.67511113622102 0 0 0
300 0 3 -1.4 8.947653326236992 10.101701753525363 20.847762003092438 0 0 0
301 0 3 -1.4 2.9259398520346434 1.2497640628092324 23.405330643572498 0 0 0
304 0 3 -1.4 10.102800365503175 7.896192403970215 22.03803488945903 0 0 0
306 0 3 -1.4 11.762267430688457 10.46905300130726 22.502094049364004 0 0 0
309 0 3 -1.4 10.551067787923394 9.382767710567617 24.705448753805108 0 0 0
310 0 3 -1.4 3.7148661104999956 5.24324617954942 22.149659638960582 0 0 0
312 0 3 -1.4 9.457188732529122 11.570691726534951 23.535929452944973 0 0 0
339 0 4 0.7 4.449170880784786 2.4510017753396216 20.078586278798358 0 0 0
314 0 3 -1.4 1.8019248605849356 6.278186433436472 25.213877592392375 0 0 0
317 0 3 -1.4 7.2757958515654515 11.093250807003747 25.651418212657553 0 0 0
320 0 3 -1.4 5.674385186450866 4.671679997676136 19.95597515309916 0 0 0
150 0 4 0.7 10.901067435410823 2.3391876528748625 25.211603193434375 0 0 -1
323 0 3 -1.4 0.3126499431381175 0.841062232069021 21.376881401473774 0 0 0
327 0 3 -1.4 4.526973018209237 12.53683518105915 25.31599490861476 0 0 0
328 0 3 -1.4 8.420990013352114 6.249396193206341 20.27973130511839 0 0 0
330 0 3 -1.4 0.610796049276149 11.03110753722769 19.707923095955564 0 0 0
369 0 4 0.7 8.558633055961083 4.252402465037222 20.314529222254308 0 0 0
382 0 4 0.7 4.198262993552541 5.6769346589815965 24.190226631896753 0 0 0
378 0 4 0.7 5.624378611168392 5.158401736643164 22.07453257846697 0 0 0
358 0 4 0.7 2.9453618777777106 8.068339445313722 19.568685815051452 0 0 0
720 0 4 0.7 8.695117601583418 12.467396223425382 21.64047172049935 0 0 0
373 0 4 0.7 2.2126084087695244 12.16209537139248 24.438952449904637 0 0 0
386 0 4 0.7 2.5716334160830727 0.9936640762958402 21.04222262999078 0 0 0
583 0 1 2.1 4.728110447566466 12.850026692952026 22.860125980329485 0 0 0
349 0 4 0.7 7.679146999591747 11.929608837146104 23.42693251381711 0 0 0
351 0 4 0.7 6.387779683120517 3.3023739972497896 21.186361539565034 0 0 0
144 0 4 0.7 6.476738709093277 9.57864587723392 24.3870377856205 0 0 -1
222 0 2 2.8 -0.007425124823132248 6.523472613623182 19.52624178029379 0 0 0
219 0 1 2.1 11.34147919131788 0.010710552559267457 22.650782029580217 0 0 0
359 0 4 0.7 4.1587983477179 7.108592152809781 21.562601755307366 0 0 0
365 0 4 0.7 2.268970617978587 4.4163565028211496 25.47360175843465 0 0 0
368 0 4 0.7 12.165890977671717 7.817229858147787 22.25034460630307 0 0 0
186 0 4 0.7 8.856329899811765 0.6697223326993141 24.24948945992455 0 0 -1
331 0 3 -1.4 12.24301914096063 4.658276396648314 25.628123355024318 0 0 0
313 0 3 -1.4 11.104862990044747 12.72957073137093 20.38466567362634 0 0 0
367 0 4 0.7 4.435263174623328 10.77284255243837 25.160455250451257 0 0 0
1489 0 4 0.7 12.813739517414302 9.839123824403336 21.08338001356203 0 0 0
206 0 1 2.1 9.806694572377028 8.121346259158445 19.575393139240123 0 0 0
338 0 4 0.7 0.019694562349621504 3.1641781609304394 24.41481394129122 0 0 0
355 0 4 0.7 12.9116992034423 3.283549773345601 24.454294191110755 0 0 0
1381 0 2 2.8 12.975301502133224 12.948601148703931 19.577112446319287 0 0 0
205 0 1 2.1 4.9103753823384295 -0.025997703940170425 22.825670473324042 0 0 0
793 0 2 2.8 12.846842563611327 0.0464470414103145 25.92388874747124 0 0 -1
203 0 1 2.1 3.1495318767534366 11.225508904019703 19.56332529212862 0 0 0
216 0 1 2.1 3.2713920662578015 4.877942835964755 19.54118215132766 0 0 0
606 0 2 2.8 6.444002163445113 12.934380590245844 19.681137237330258 0 0 0
214 0 1 2.1 9.685668100689721 1.4736614086676132 19.571881273536377 0 0 0
209 0 1 2.1 -0.01806211677123315 3.312227001807303 21.143017513835986 0 0 0
388 0 1 2.1 11.264638658646366 19.545255214531924 3.2290379681504113 0 0 0
913 0 4 0.7 12.285719018281087 24.108879950066722 2.5160600969264753 0 -1 0
407 0 1 2.1 7.917031244457591 13.016282400709875 3.277162237231719 0 0 0
553 0 4 0.7 7.039155255260058 17.366561957185876 2.213410360353972 0 0 0
533 0 4 0.7 0.6138601546689586 17.40043757936383 4.234755404057556 0 0 0
1151 0 1 2.1 12.949633727162643 16.26968672349006 1.4811752317808453 0 0 0
400 0 1 2.1 6.451909541474225 22.75279033493159 1.613705040387214 0 0 0
402 0 1 2.1 6.3259156225335795 16.23090788260998 4.9205428680646115 0 0 0
4 0 1 2.1 1.5219891007948236 25.991317946345955 3.3262596739572383 0 -1 0
146 0 4 0.7 11.414139015156257 25.93771150543524 3.3579398935422855 0 -1 0
453 0 3 -1.4 0.4260944808797007 18.841008124294955 1.953988274871918 0 0 0
410 0 1 2.1 4.846812934431663 19.502980297693483 3.2378436095465815 0 0 0
723 0 4 0.7 9.682869463189007 21.04661902260263 0.203269585320621 0 0 1
415 0 2 2.8 9.654368067676709 22.71518719866884 3.246936170277988 0 0 0
416 0 2 2.8 3.1633097677825774 16.247672966262446 3.2376583421031313 0 0 0
392 0 1 2.1 -0.015971534685253808 16.24778549737881 1.5531432278034067 0 0 0