LAMMPS data file via OVITO

43154 atoms
576 atom types

0.00000000 26.013 xlo xhi
0.00000000 26.013 ylo yhi
0.00000000 26.013 zlo zhi

Masses

1 1.0
2 1.0
3 1.0
4 1.0
5 1.0
6 1.0
7 1.0
8 1.0
9 1.0
10 1.0
11 1.0
12 1.0
13 1.0
14 1.0
15 1.0
16 1.0
17 1.0
18 1.0
19 1.0
20 1.0
21 1.0
22 1.0
23 1.0
24 1.0
25 1.0
26 1.0
27 1.0
28 1.0
29 1.0
30 1.0
31 1.0
32 1.0
33 1.0
34 1.0
35 1.0
36 1.0
37 1.0
38 1.0
39 1.0
40 1.0
41 1.0
42 1.0
43 1.0
44 1.0
45 1.0
46 1.0
47 1.0
48 1.0
49 1.0
50 1.0
51 1.0
52 1.0
53 1.0
54 1.0
55 1.0
56 1.0
57 1.0
58 1.0
59 1.0
60 1.0
61 1.0
62 1.0
63 1.0
64 1.0
65 1.0
66 1.0
67 1.0
68 1.0
69 1.0
70 1.0
71 1.0
72 1.0
73 1.0
74 1.0
75 1.0
76 1.0
77 1.0
78 1.0
79 1.0
80 1.0
81 1.0
82 1.0
83 1.0
84 1.0
85 1.0
86 1.0
87 1.0
88 1.0
89 1.0
90 1.0
91 1.0
92 1.0
93 1.0
94 1.0
95 1.0
96 1.0
97 1.0
98 1.0
99 1.0
100 1.0
101 1.0
102 1.0
103 1.0
104 1.0
105 1.0
106 1.0
107 1.0
108 1.0
109 1.0
110 1.0
111 1.0
112 1.0
113 1.0
114 1.0
115 1.0
116 1.0
117 1.0
118 1.0
119 1.0
120 1.0
121 1.0
122 1.0
123 1.0
124 1.0
125 1.0
126 1.0
127 1.0
128 1.0
129 1.0
130 1.0
131 1.0
132 1.0
133 1.0
134 1.0
135 1.0
136 1.0
137 1.0
138 1.0
139 1.0
140 1.0
141 1.0
142 1.0
143 1.0
144 1.0
145 1.0
146 1.0
147 1.0
148 1.0
149 1.0
150 1.0
151 1.0
152 1.0
153 1.0
154 1.0
155 1.0
156 1.0
157 1.0
158 1.0
159 1.0
160 1.0
161 1.0
162 1.0
163 1.0
164 1.0
165 1.0
166 1.0
167 1.0
168 1.0
169 1.0
170 1.0
171 1.0
172 1.0
173 1.0
174 1.0
175 1.0
176 1.0
177 1.0
178 1.0
179 1.0
180 1.0
181 1.0
182 1.0
183 1.0
184 1.0
185 1.0
186 1.0
187 1.0
188 1.0
189 1.0
190 1.0
191 1.0
192 1.0
193 1.0
194 1.0
195 1.0
196 1.0
197 1.0
198 1.0
199 1.0
200 1.0
201 1.0
202 1.0
203 1.0
204 1.0
205 1.0
206 1.0
207 1.0
208 1.0
209 1.0
210 1.0
211 1.0
212 1.0
213 1.0
214 1.0
215 1.0
216 1.0
217 1.0
218 1.0
219 1.0
220 1.0
221 1.0
222 1.0
223 1.0
224 1.0
225 1.0
226 1.0
227 1.0
228 1.0
229 1.0
230 1.0
231 1.0
232 1.0
233 1.0
234 1.0
235 1.0
236 1.0
237 1.0
238 1.0
239 1.0
240 1.0
241 1.0
242 1.0
243 1.0
244 1.0
245 1.0
246 1.0
247 1.0
248 1.0
249 1.0
250 1.0
251 1.0
252 1.0
253 1.0
254 1.0
255 1.0
256 1.0
257 1.0
258 1.0
259 1.0
260 1.0
261 1.0
262 1.0
263 1.0
264 1.0
265 1.0
266 1.0
267 1.0
268 1.0
269 1.0
270 1.0
271 1.0
272 1.0
273 1.0
274 1.0
275 1.0
276 1.0
277 1.0
278 1.0
279 1.0
280 1.0
281 1.0
282 1.0
283 1.0
284 1.0
285 1.0
286 1.0
287 1.0
288 1.0
289 1.0
290 1.0
291 1.0
292 1.0
293 1.0
294 1.0
295 1.0
296 1.0
297 1.0
298 1.0
299 1.0
300 1.0
301 1.0
302 1.0
303 1.0
304 1.0
305 1.0
306 1.0
307 1.0
308 1.0
309 1.0
310 1.0
311 1.0
312 1.0
313 1.0
314 1.0
315 1.0
316 1.0
317 1.0
318 1.0
319 1.0
320 1.0
321 1.0
322 1.0
323 1.0
324 1.0
325 1.0
326 1.0
327 1.0
328 1.0
329 1.0
330 1.0
331 1.0
332 1.0
333 1.0
334 1.0
335 1.0
336 1.0
337 1.0
338 1.0
339 1.0
340 1.0
341 1.0
342 1.0
343 1.0
344 1.0
345 1.0
346 1.0
347 1.0
348 1.0
349 1.0
350 1.0
351 1.0
352 1.0
353 1.0
354 1.0
355 1.0
356 1.0
357 1.0
358 1.0
359 1.0
360 1.0
361 1.0
362 1.0
363 1.0
364 1.0
365 1.0
366 1.0
367 1.0
368 1.0
369 1.0
370 1.0
371 1.0
372 1.0
373 1.0
374 1.0
375 1.0
376 1.0
377 1.0
378 1.0
379 1.0
380 1.0
381 1.0
382 1.0
383 1.0
384 1.0
385 1.0
386 1.0
387 1.0
388 1.0
389 1.0
390 1.0
391 1.0
392 1.0
393 1.0
394 1.0
395 1.0
396 1.0
397 1.0
398 1.0
399 1.0
400 1.0
401 1.0
402 1.0
403 1.0
404 1.0
405 1.0
406 1.0
407 1.0
408 1.0
409 1.0
410 1.0
411 1.0
412 1.0
413 1.0
414 1.0
415 1.0
416 1.0
417 1.0
418 1.0
419 1.0
420 1.0
421 1.0
422 1.0
423 1.0
424 1.0
425 1.0
426 1.0
427 1.0
428 1.0
429 1.0
430 1.0
431 1.0
432 1.0
433 1.0
434 1.0
435 1.0
436 1.0
437 1.0
438 1.0
439 1.0
440 1.0
441 1.0
442 1.0
443 1.0
444 1.0
445 1.0
446 1.0
447 1.0
448 1.0
449 1.0
450 1.0
451 1.0
452 1.0
453 1.0
454 1.0
455 1.0
456 1.0
457 1.0
458 1.0
459 1.0
460 1.0
461 1.0
462 1.0
463 1.0
464 1.0
465 1.0
466 1.0
467 1.0
468 1.0
469 1.0
470 1.0
471 1.0
472 1.0
473 1.0
474 1.0
475 1.0
476 1.0
477 1.0
478 1.0
479 1.0
480 1.0
481 1.0
482 1.0
483 1.0
484 1.0
485 1.0
486 1.0
487 1.0
488 1.0
489 1.0
490 1.0
491 1.0
492 1.0
493 1.0
494 1.0
495 1.0
496 1.0
497 1.0
498 1.0
499 1.0
500 1.0
501 1.0
502 1.0
503 1.0
504 1.0
505 1.0
506 1.0
507 1.0
508 1.0
509 1.0
510 1.0
511 1.0
512 1.0
513 1.0
514 1.0
515 1.0
516 1.0
517 1.0
518 1.0
519 1.0
520 1.0
521 1.0
522 1.0
523 1.0
524 1.0
525 1.0
526 1.0
527 1.0
528 1.0
529 1.0
530 1.0
531 1.0
532 1.0
533 1.0
534 1.0
535 1.0
536 1.0
537 1.0
538 1.0
539 1.0
540 1.0
541 1.0
542 1.0
543 1.0
544 1.0
545 1.0
546 1.0
547 1.0
548 1.0
549 1.0
550 1.0
551 1.0
552 1.0
553 1.0
554 1.0
555 1.0
556 1.0
557 1.0
558 1.0
559 1.0
560 1.0
561 1.0
562 1.0
563 1.0
564 1.0
565 1.0
566 1.0
567 1.0
568 1.0
569 1.0
570 1.0
571 1.0
572 1.0
573 1.0
574 1.0
575 1.0
576 1.0

Atoms # atomic

1         1         0.200100    3.001500    4.802400    
2         1         0.200100    3.001500    5.002500    
3         1         0.200100    3.001500    5.202600    
4         2         0.200100    3.001500    11.405700   
5         2         0.200100    3.001500    11.605800   
6         3         0.200100    3.001500    17.808900   
7         3         0.200100    3.001500    18.009000   
8         3         0.200100    3.001500    18.209100   
9         4         0.200100    3.001500    24.412200   
10        4         0.200100    3.001500    24.612300   
11        1         0.200100    3.201600    4.802400    
12        1         0.200100    3.201600    5.002500    
13        1         0.200100    3.201600    5.202600    
14        2         0.200100    3.201600    11.405700   
15        2         0.200100    3.201600    11.605800   
16        2         0.200100    3.201600    11.805900   
17        3         0.200100    3.201600    17.808900   
18        3         0.200100    3.201600    18.009000   
19        3         0.200100    3.201600    18.209100   
20        4         0.200100    3.201600    24.412200   
21        4         0.200100    3.201600    24.612300   
22        4         0.200100    3.201600    24.812400   
23        1         0.200100    3.401700    4.802400    
24        1         0.200100    3.401700    5.002500    
25        1         0.200100    3.401700    5.202600    
26        2         0.200100    3.401700    11.405700   
27        2         0.200100    3.401700    11.605800   
28        2         0.200100    3.401700    11.805900   
29        3         0.200100    3.401700    17.808900   
30        3         0.200100    3.401700    18.009000   
31        3         0.200100    3.401700    18.209100   
32        4         0.200100    3.401700    24.412200   
33        4         0.200100    3.401700    24.612300   
34        4         0.200100    3.401700    24.812400   
35        1         0.200100    3.601800    4.802400    
36        1         0.200100    3.601800    5.002500    
37        1         0.200100    3.601800    5.202600    
38        2         0.200100    3.601800    11.405700   
39        2         0.200100    3.601800    11.605800   
40        2         0.200100    3.601800    11.805900   
41        3         0.200100    3.601800    17.808900   
42        3         0.200100    3.601800    18.009000   
43        3         0.200100    3.601800    18.209100   
44        4         0.200100    3.601800    24.412200   
45        4         0.200100    3.601800    24.612300   
46        4         0.200100    3.601800    24.812400   
47        1         0.200100    3.801900    4.802400    
48        1         0.200100    3.801900    5.002500    
49        2         0.200100    3.801900    11.405700   
50        2         0.200100    3.801900    11.605800   
51        3         0.200100    3.801900    17.808900   
52        3         0.200100    3.801900    18.009000   
53        4         0.200100    3.801900    24.412200   
54        4         0.200100    3.801900    24.612300   
55        6         0.200100    9.404700    8.404200    
56        5         0.200100    9.604800    1.600800    
57        5         0.200100    9.604800    1.800900    
58        5         0.200100    9.604800    2.001000    
59        6         0.200100    9.604800    8.204100    
60        6         0.200100    9.604800    8.404200    
61        6         0.200100    9.604800    8.604300    
62        8         0.200100    9.604800    14.807400   
63        8         0.200100    9.604800    15.007500   
64        7         0.200100    9.604800    21.210600   
65        7         0.200100    9.604800    21.410700   
66        5         0.200100    9.804900    1.600800    
67        5         0.200100    9.804900    1.800900    
68        5         0.200100    9.804900    2.001000    
69        6         0.200100    9.804900    8.004000    
70        6         0.200100    9.804900    8.204100    
71        6         0.200100    9.804900    8.404200    
72        6         0.200100    9.804900    8.604300    
73        8         0.200100    9.804900    14.607300   
74        8         0.200100    9.804900    14.807400   
75        8         0.200100    9.804900    15.007500   
76        7         0.200100    9.804900    21.010500   
77        7         0.200100    9.804900    21.210600   
78        7         0.200100    9.804900    21.410700   
79        7         0.200100    9.804900    21.610800   
80        5         0.200100    10.005000   1.600800    
81        5         0.200100    10.005000   1.800900    
82        5         0.200100    10.005000   2.001000    
83        6         0.200100    10.005000   8.004000    
84        6         0.200100    10.005000   8.204100    
85        6         0.200100    10.005000   8.404200    
86        6         0.200100    10.005000   8.604300    
87        8         0.200100    10.005000   14.607300   
88        8         0.200100    10.005000   14.807400   
89        8         0.200100    10.005000   15.007500   
90        7         0.200100    10.005000   21.010500   
91        7         0.200100    10.005000   21.210600   
92        7         0.200100    10.005000   21.410700   
93        7         0.200100    10.005000   21.610800   
94        5         0.200100    10.205100   1.600800    
95        5         0.200100    10.205100   1.800900    
96        5         0.200100    10.205100   2.001000    
97        6         0.200100    10.205100   8.204100    
98        6         0.200100    10.205100   8.404200    
99        6         0.200100    10.205100   8.604300    
100       8         0.200100    10.205100   14.607300   
101       8         0.200100    10.205100   14.807400   
102       8         0.200100    10.205100   15.007500   
103       7         0.200100    10.205100   21.210600   
104       7         0.200100    10.205100   21.410700   
105       5         0.200100    10.405200   1.800900    
106       5         0.200100    10.405200   2.001000    
107       6         0.200100    10.405200   8.404200    
108       8         0.200100    10.405200   14.807400   
109       8         0.200100    10.405200   15.007500   
110       7         0.200100    10.405200   21.410700   
111       10        0.200100    16.008000   5.002500    
112       11        0.200100    16.008000   11.405700   
113       11        0.200100    16.008000   11.605800   
114       9         0.200100    16.008000   17.808900   
115       9         0.200100    16.008000   18.009000   
116       9         0.200100    16.008000   18.209100   
117       12        0.200100    16.008000   24.412200   
118       12        0.200100    16.008000   24.612300   
119       10        0.200100    16.208100   4.802400    
120       10        0.200100    16.208100   5.002500    
121       10        0.200100    16.208100   5.202600    
122       11        0.200100    16.208100   11.405700   
123       11        0.200100    16.208100   11.605800   
124       11        0.200100    16.208100   11.805900   
125       9         0.200100    16.208100   17.808900   
126       9         0.200100    16.208100   18.009000   
127       9         0.200100    16.208100   18.209100   
128       12        0.200100    16.208100   24.412200   
129       12        0.200100    16.208100   24.612300   
130       12        0.200100    16.208100   24.812400   
131       10        0.200100    16.408200   4.802400    
132       10        0.200100    16.408200   5.002500    
133       10        0.200100    16.408200   5.202600    
134       11        0.200100    16.408200   11.405700   
135       11        0.200100    16.408200   11.605800   
136       11        0.200100    16.408200   11.805900   
137       9         0.200100    16.408200   17.808900   
138       9         0.200100    16.408200   18.009000   
139       9         0.200100    16.408200   18.209100   
140       12        0.200100    16.408200   24.412200   
141       12        0.200100    16.408200   24.612300   
142       12        0.200100    16.408200   24.812400   
143       10        0.200100    16.608300   4.802400    
144       10        0.200100    16.608300   5.002500    
145       10        0.200100    16.608300   5.202600    
146       11        0.200100    16.608300   11.405700   
147       11        0.200100    16.608300   11.605800   
148       11        0.200100    16.608300   11.805900   
149       9         0.200100    16.608300   17.808900   
150       9         0.200100    16.608300   18.009000   
151       9         0.200100    16.608300   18.209100   
152       12        0.200100    16.608300   24.412200   
153       12        0.200100    16.608300   24.612300   
154       12        0.200100    16.608300   24.812400   
155       10        0.200100    16.808400   4.802400    
156       10        0.200100    16.808400   5.002500    
157       10        0.200100    16.808400   5.202600    
158       11        0.200100    16.808400   11.405700   
159       11        0.200100    16.808400   11.605800   
160       9         0.200100    16.808400   17.808900   
161       9         0.200100    16.808400   18.009000   
162       9         0.200100    16.808400   18.209100   
163       12        0.200100    16.808400   24.412200   
164       12        0.200100    16.808400   24.612300   
165       15        0.200100    22.411200   14.807400   
166       13        0.200100    22.611300   1.600800    
167       13        0.200100    22.611300   1.800900    
168       13        0.200100    22.611300   2.001000    
169       14        0.200100    22.611300   8.204100    
170       14        0.200100    22.611300   8.404200    
171       15        0.200100    22.611300   14.607300   
172       15        0.200100    22.611300   14.807400   
173       15        0.200100    22.611300   15.007500   
174       16        0.200100    22.611300   21.210600   
175       16        0.200100    22.611300   21.410700   
176       13        0.200100    22.811400   1.600800    
177       13        0.200100    22.811400   1.800900    
178       13        0.200100    22.811400   2.001000    
179       14        0.200100    22.811400   8.204100    
180       14        0.200100    22.811400   8.404200    
181       14        0.200100    22.811400   8.604300    
182       15        0.200100    22.811400   14.607300   
183       15        0.200100    22.811400   14.807400   
184       15        0.200100    22.811400   15.007500   
185       16        0.200100    22.811400   21.210600   
186       16        0.200100    22.811400   21.410700   
187       16        0.200100    22.811400   21.610800   
188       13        0.200100    23.011500   1.600800    
189       13        0.200100    23.011500   1.800900    
190       13        0.200100    23.011500   2.001000    
191       14        0.200100    23.011500   8.004000    
192       14        0.200100    23.011500   8.204100    
193       14        0.200100    23.011500   8.404200    
194       14        0.200100    23.011500   8.604300    
195       15        0.200100    23.011500   14.607300   
196       15        0.200100    23.011500   14.807400   
197       15        0.200100    23.011500   15.007500   
198       16        0.200100    23.011500   21.010500   
199       16        0.200100    23.011500   21.210600   
200       16        0.200100    23.011500   21.410700   
201       16        0.200100    23.011500   21.610800   
202       13        0.200100    23.211600   1.600800    
203       13        0.200100    23.211600   1.800900    
204       13        0.200100    23.211600   2.001000    
205       14        0.200100    23.211600   8.204100    
206       14        0.200100    23.211600   8.404200    
207       15        0.200100    23.211600   14.607300   
208       15        0.200100    23.211600   14.807400   
209       15        0.200100    23.211600   15.007500   
210       16        0.200100    23.211600   21.010500   
211       16        0.200100    23.211600   21.210600   
212       16        0.200100    23.211600   21.410700   
213       16        0.200100    23.211600   21.610800   
214       14        0.200100    23.411700   8.404200    
215       15        0.200100    23.411700   14.807400   
216       15        0.200100    23.411700   15.007500   
217       16        0.200100    23.411700   21.410700   
218       16        0.200100    23.411700   21.610800   
219       2         0.400200    2.801400    11.205600   
220       2         0.400200    2.801400    11.405700   
221       2         0.400200    3.001500    11.205600   
222       2         0.400200    3.001500    11.405700   
223       2         0.400200    3.001500    11.605800   
224       4         0.400200    3.001500    24.412200   
225       1         0.400200    3.201600    4.802400    
226       1         0.400200    3.201600    5.002500    
227       1         0.400200    3.201600    5.202600    
228       1         0.400200    3.201600    5.402700    
229       2         0.400200    3.201600    11.205600   
230       2         0.400200    3.201600    11.405700   
231       2         0.400200    3.201600    11.605800   
232       3         0.400200    3.201600    18.009000   
233       3         0.400200    3.201600    18.209100   
234       4         0.400200    3.201600    24.412200   
235       4         0.400200    3.201600    24.612300   
236       1         0.400200    3.401700    4.802400    
237       1         0.400200    3.401700    5.002500    
238       1         0.400200    3.401700    5.202600    
239       2         0.400200    3.401700    11.405700   
240       2         0.400200    3.401700    11.605800   
241       2         0.400200    3.401700    11.805900   
242       3         0.400200    3.401700    17.808900   
243       3         0.400200    3.401700    18.009000   
244       3         0.400200    3.401700    18.209100   
245       4         0.400200    3.401700    24.412200   
246       4         0.400200    3.401700    24.612300   
247       4         0.400200    3.401700    24.812400   
248       1         0.400200    3.601800    4.802400    
249       1         0.400200    3.601800    5.002500    
250       1         0.400200    3.601800    5.202600    
251       2         0.400200    3.601800    11.405700   
252       2         0.400200    3.601800    11.605800   
253       2         0.400200    3.601800    11.805900   
254       3         0.400200    3.601800    17.808900   
255       3         0.400200    3.601800    18.009000   
256       3         0.400200    3.601800    18.209100   
257       4         0.400200    3.601800    24.412200   
258       4         0.400200    3.601800    24.612300   
259       4         0.400200    3.601800    24.812400   
260       1         0.400200    3.801900    4.802400    
261       1         0.400200    3.801900    5.002500    
262       2         0.400200    3.801900    11.605800   
263       2         0.400200    3.801900    11.805900   
264       3         0.400200    3.801900    17.808900   
265       3         0.400200    3.801900    18.009000   
266       5         0.400200    9.604800    1.800900    
267       5         0.400200    9.604800    2.001000    
268       6         0.400200    9.604800    8.204100    
269       6         0.400200    9.604800    8.404200    
270       8         0.400200    9.604800    14.807400   
271       8         0.400200    9.604800    15.007500   
272       7         0.400200    9.604800    21.010500   
273       7         0.400200    9.604800    21.210600   
274       7         0.400200    9.604800    21.410700   
275       5         0.400200    9.804900    1.600800    
276       5         0.400200    9.804900    1.800900    
277       5         0.400200    9.804900    2.001000    
278       6         0.400200    9.804900    8.004000    
279       6         0.400200    9.804900    8.204100    
280       6         0.400200    9.804900    8.404200    
281       8         0.400200    9.804900    14.607300   
282       8         0.400200    9.804900    14.807400   
283       8         0.400200    9.804900    15.007500   
284       7         0.400200    9.804900    21.010500   
285       7         0.400200    9.804900    21.210600   
286       7         0.400200    9.804900    21.410700   
287       5         0.400200    10.005000   1.600800    
288       5         0.400200    10.005000   1.800900    
289       5         0.400200    10.005000   2.001000    
290       6         0.400200    10.005000   8.204100    
291       6         0.400200    10.005000   8.404200    
292       8         0.400200    10.005000   14.607300   
293       8         0.400200    10.005000   14.807400   
294       8         0.400200    10.005000   15.007500   
295       7         0.400200    10.005000   21.210600   
296       7         0.400200    10.005000   21.410700   
297       5         0.400200    10.205100   1.600800    
298       5         0.400200    10.205100   1.800900    
299       6         0.400200    10.205100   8.204100    
300       6         0.400200    10.205100   8.404200    
301       6         0.400200    10.205100   8.604300    
302       8         0.400200    10.205100   14.607300   
303       8         0.400200    10.205100   14.807400   
304       7         0.400200    10.205100   21.210600   
305       7         0.400200    10.205100   21.410700   
306       7         0.400200    10.205100   21.610800   
307       6         0.400200    10.405200   8.404200    
308       6         0.400200    10.405200   8.604300    
309       7         0.400200    10.405200   21.410700   
310       25        0.400200    15.407700   11.005500   
311       12        0.400200    15.807900   24.212100   
312       12        0.400200    15.807900   24.412200   
313       11        0.400200    16.008000   11.205600   
314       11        0.400200    16.008000   11.405700   
315       11        0.400200    16.008000   11.605800   
316       9         0.400200    16.008000   18.009000   
317       9         0.400200    16.008000   18.209100   
318       12        0.400200    16.008000   24.212100   
319       12        0.400200    16.008000   24.412200   
320       12        0.400200    16.008000   24.612300   
321       10        0.400200    16.208100   5.002500    
322       10        0.400200    16.208100   5.202600    
323       11        0.400200    16.208100   11.405700   
324       11        0.400200    16.208100   11.605800   
325       9         0.400200    16.208100   18.009000   
326       9         0.400200    16.208100   18.209100   
327       12        0.400200    16.208100   24.212100   
328       12        0.400200    16.208100   24.412200   
329       12        0.400200    16.208100   24.612300   
330       10        0.400200    16.408200   4.802400    
331       10        0.400200    16.408200   5.002500    
332       10        0.400200    16.408200   5.202600    
333       11        0.400200    16.408200   11.405700   
334       11        0.400200    16.408200   11.605800   
335       11        0.400200    16.408200   11.805900   
336       9         0.400200    16.408200   17.808900   
337       9         0.400200    16.408200   18.009000   
338       9         0.400200    16.408200   18.209100   
339       12        0.400200    16.408200   24.412200   
340       12        0.400200    16.408200   24.612300   
341       12        0.400200    16.408200   24.812400   
342       10        0.400200    16.608300   4.802400    
343       10        0.400200    16.608300   5.002500    
344       10        0.400200    16.608300   5.202600    
345       11        0.400200    16.608300   11.405700   
346       11        0.400200    16.608300   11.605800   
347       11        0.400200    16.608300   11.805900   
348       9         0.400200    16.608300   17.808900   
349       9         0.400200    16.608300   18.009000   
350       9         0.400200    16.608300   18.209100   
351       12        0.400200    16.608300   24.412200   
352       12        0.400200    16.608300   24.612300   
353       12        0.400200    16.608300   24.812400   
354       10        0.400200    16.808400   4.802400    
355       10        0.400200    16.808400   5.002500    
356       11        0.400200    16.808400   11.605800   
357       9         0.400200    16.808400   17.808900   
358       9         0.400200    16.808400   18.009000   
359       9         0.400200    16.808400   18.209100   
360       12        0.400200    16.808400   24.612300   
361       9         0.400200    17.008500   17.808900   
362       9         0.400200    17.008500   18.009000   
363       27        0.400200    17.408700   4.602300    
364       15        0.400200    22.211100   15.007500   
365       15        0.400200    22.211100   15.207600   
366       13        0.400200    22.411200   1.800900    
367       13        0.400200    22.411200   2.001000    
368       15        0.400200    22.411200   14.807400   
369       15        0.400200    22.411200   15.007500   
370       15        0.400200    22.411200   15.207600   
371       13        0.400200    22.611300   1.800900    
372       13        0.400200    22.611300   2.001000    
373       14        0.400200    22.611300   8.004000    
374       14        0.400200    22.611300   8.204100    
375       14        0.400200    22.611300   8.404200    
376       15        0.400200    22.611300   14.607300   
377       15        0.400200    22.611300   14.807400   
378       15        0.400200    22.611300   15.007500   
379       16        0.400200    22.611300   21.210600   
380       16        0.400200    22.611300   21.410700   
381       13        0.400200    22.811400   1.600800    
382       13        0.400200    22.811400   1.800900    
383       13        0.400200    22.811400   2.001000    
384       14        0.400200    22.811400   8.004000    
385       14        0.400200    22.811400   8.204100    
386       14        0.400200    22.811400   8.404200    
387       15        0.400200    22.811400   14.607300   
388       15        0.400200    22.811400   14.807400   
389       15        0.400200    22.811400   15.007500   
390       16        0.400200    22.811400   21.010500   
391       16        0.400200    22.811400   21.210600   
392       16        0.400200    22.811400   21.410700   
393       13        0.400200    23.011500   1.600800    
394       13        0.400200    23.011500   1.800900    
395       13        0.400200    23.011500   2.001000    
396       14        0.400200    23.011500   8.204100    
397       14        0.400200    23.011500   8.404200    
398       15        0.400200    23.011500   14.607300   
399       15        0.400200    23.011500   14.807400   
400       15        0.400200    23.011500   15.007500   
401       16        0.400200    23.011500   21.210600   
402       16        0.400200    23.011500   21.410700   
403       16        0.400200    23.011500   21.610800   
404       13        0.400200    23.211600   1.600800    
405       13        0.400200    23.211600   1.800900    
406       14        0.400200    23.211600   8.204100    
407       14        0.400200    23.211600   8.404200    
408       14        0.400200    23.211600   8.604300    
409       15        0.400200    23.211600   14.607300   
410       15        0.400200    23.211600   14.807400   
411       16        0.400200    23.211600   21.210600   
412       16        0.400200    23.211600   21.410700   
413       16        0.400200    23.211600   21.610800   
414       14        0.400200    23.411700   8.404200    
415       16        0.400200    23.411700   21.410700   
416       16        0.400200    23.411700   21.610800   
417       17        0.600300    1.800900    10.605300   
418       17        0.600300    1.800900    10.805400   
419       18        0.600300    1.800900    23.811900   
420       17        0.600300    2.001000    10.605300   
421       17        0.600300    2.001000    10.805400   
422       17        0.600300    2.001000    11.005500   
423       18        0.600300    2.001000    23.611800   
424       18        0.600300    2.001000    23.811900   
425       18        0.600300    2.001000    24.012000   
426       17        0.600300    2.201100    10.605300   
427       17        0.600300    2.201100    10.805400   
428       17        0.600300    2.201100    11.005500   
429       18        0.600300    2.201100    23.611800   
430       18        0.600300    2.201100    23.811900   
431       18        0.600300    2.201100    24.012000   
432       17        0.600300    2.401200    10.805400   
433       17        0.600300    2.401200    11.005500   
434       18        0.600300    2.401200    23.811900   
435       18        0.600300    2.401200    24.012000   
436       17        0.600300    2.601300    11.005500   
437       18        0.600300    2.601300    24.012000   
438       2         0.600300    2.801400    11.405700   
439       1         0.600300    3.001500    5.202600    
440       2         0.600300    3.001500    11.205600   
441       2         0.600300    3.001500    11.405700   
442       1         0.600300    3.201600    5.002500    
443       1         0.600300    3.201600    5.202600    
444       1         0.600300    3.201600    5.402700    