LAMMPS data file via OVITO

43425 atoms
576 atom types

0.00000000 26.0 xlo xhi
0.00000000 26.0 ylo yhi
0.00000000 26.0 zlo zhi

Masses

1 1.0
2 1.0
3 1.0
4 1.0
5 1.0
6 1.0
7 1.0
8 1.0
9 1.0
10 1.0
11 1.0
12 1.0
13 1.0
14 1.0
15 1.0
16 1.0
17 1.0
18 1.0
19 1.0
20 1.0
21 1.0
22 1.0
23 1.0
24 1.0
25 1.0
26 1.0
27 1.0
28 1.0
29 1.0
30 1.0
31 1.0
32 1.0
33 1.0
34 1.0
35 1.0
36 1.0
37 1.0
38 1.0
39 1.0
40 1.0
41 1.0
42 1.0
43 1.0
44 1.0
45 1.0
46 1.0
47 1.0
48 1.0
49 1.0
50 1.0
51 1.0
52 1.0
53 1.0
54 1.0
55 1.0
56 1.0
57 1.0
58 1.0
59 1.0
60 1.0
61 1.0
62 1.0
63 1.0
64 1.0
65 1.0
66 1.0
67 1.0
68 1.0
69 1.0
70 1.0
71 1.0
72 1.0
73 1.0
74 1.0
75 1.0
76 1.0
77 1.0
78 1.0
79 1.0
80 1.0
81 1.0
82 1.0
83 1.0
84 1.0
85 1.0
86 1.0
87 1.0
88 1.0
89 1.0
90 1.0
91 1.0
92 1.0
93 1.0
94 1.0
95 1.0
96 1.0
97 1.0
98 1.0
99 1.0
100 1.0
101 1.0
102 1.0
103 1.0
104 1.0
105 1.0
106 1.0
107 1.0
108 1.0
109 1.0
110 1.0
111 1.0
112 1.0
113 1.0
114 1.0
115 1.0
116 1.0
117 1.0
118 1.0
119 1.0
120 1.0
121 1.0
122 1.0
123 1.0
124 1.0
125 1.0
126 1.0
127 1.0
128 1.0
129 1.0
130 1.0
131 1.0
132 1.0
133 1.0
134 1.0
135 1.0
136 1.0
137 1.0
138 1.0
139 1.0
140 1.0
141 1.0
142 1.0
143 1.0
144 1.0
145 1.0
146 1.0
147 1.0
148 1.0
149 1.0
150 1.0
151 1.0
152 1.0
153 1.0
154 1.0
155 1.0
156 1.0
157 1.0
158 1.0
159 1.0
160 1.0
161 1.0
162 1.0
163 1.0
164 1.0
165 1.0
166 1.0
167 1.0
168 1.0
169 1.0
170 1.0
171 1.0
172 1.0
173 1.0
174 1.0
175 1.0
176 1.0
177 1.0
178 1.0
179 1.0
180 1.0
181 1.0
182 1.0
183 1.0
184 1.0
185 1.0
186 1.0
187 1.0
188 1.0
189 1.0
190 1.0
191 1.0
192 1.0
193 1.0
194 1.0
195 1.0
196 1.0
197 1.0
198 1.0
199 1.0
200 1.0
201 1.0
202 1.0
203 1.0
204 1.0
205 1.0
206 1.0
207 1.0
208 1.0
209 1.0
210 1.0
211 1.0
212 1.0
213 1.0
214 1.0
215 1.0
216 1.0
217 1.0
218 1.0
219 1.0
220 1.0
221 1.0
222 1.0
223 1.0
224 1.0
225 1.0
226 1.0
227 1.0
228 1.0
229 1.0
230 1.0
231 1.0
232 1.0
233 1.0
234 1.0
235 1.0
236 1.0
237 1.0
238 1.0
239 1.0
240 1.0
241 1.0
242 1.0
243 1.0
244 1.0
245 1.0
246 1.0
247 1.0
248 1.0
249 1.0
250 1.0
251 1.0
252 1.0
253 1.0
254 1.0
255 1.0
256 1.0
257 1.0
258 1.0
259 1.0
260 1.0
261 1.0
262 1.0
263 1.0
264 1.0
265 1.0
266 1.0
267 1.0
268 1.0
269 1.0
270 1.0
271 1.0
272 1.0
273 1.0
274 1.0
275 1.0
276 1.0
277 1.0
278 1.0
279 1.0
280 1.0
281 1.0
282 1.0
283 1.0
284 1.0
285 1.0
286 1.0
287 1.0
288 1.0
289 1.0
290 1.0
291 1.0
292 1.0
293 1.0
294 1.0
295 1.0
296 1.0
297 1.0
298 1.0
299 1.0
300 1.0
301 1.0
302 1.0
303 1.0
304 1.0
305 1.0
306 1.0
307 1.0
308 1.0
309 1.0
310 1.0
311 1.0
312 1.0
313 1.0
314 1.0
315 1.0
316 1.0
317 1.0
318 1.0
319 1.0
320 1.0
321 1.0
322 1.0
323 1.0
324 1.0
325 1.0
326 1.0
327 1.0
328 1.0
329 1.0
330 1.0
331 1.0
332 1.0
333 1.0
334 1.0
335 1.0
336 1.0
337 1.0
338 1.0
339 1.0
340 1.0
341 1.0
342 1.0
343 1.0
344 1.0
345 1.0
346 1.0
347 1.0
348 1.0
349 1.0
350 1.0
351 1.0
352 1.0
353 1.0
354 1.0
355 1.0
356 1.0
357 1.0
358 1.0
359 1.0
360 1.0
361 1.0
362 1.0
363 1.0
364 1.0
365 1.0
366 1.0
367 1.0
368 1.0
369 1.0
370 1.0
371 1.0
372 1.0
373 1.0
374 1.0
375 1.0
376 1.0
377 1.0
378 1.0
379 1.0
380 1.0
381 1.0
382 1.0
383 1.0
384 1.0
385 1.0
386 1.0
387 1.0
388 1.0
389 1.0
390 1.0
391 1.0
392 1.0
393 1.0
394 1.0
395 1.0
396 1.0
397 1.0
398 1.0
399 1.0
400 1.0
401 1.0
402 1.0
403 1.0
404 1.0
405 1.0
406 1.0
407 1.0
408 1.0
409 1.0
410 1.0
411 1.0
412 1.0
413 1.0
414 1.0
415 1.0
416 1.0
417 1.0
418 1.0
419 1.0
420 1.0
421 1.0
422 1.0
423 1.0
424 1.0
425 1.0
426 1.0
427 1.0
428 1.0
429 1.0
430 1.0
431 1.0
432 1.0
433 1.0
434 1.0
435 1.0
436 1.0
437 1.0
438 1.0
439 1.0
440 1.0
441 1.0
442 1.0
443 1.0
444 1.0
445 1.0
446 1.0
447 1.0
448 1.0
449 1.0
450 1.0
451 1.0
452 1.0
453 1.0
454 1.0
455 1.0
456 1.0
457 1.0
458 1.0
459 1.0
460 1.0
461 1.0
462 1.0
463 1.0
464 1.0
465 1.0
466 1.0
467 1.0
468 1.0
469 1.0
470 1.0
471 1.0
472 1.0
473 1.0
474 1.0
475 1.0
476 1.0
477 1.0
478 1.0
479 1.0
480 1.0
481 1.0
482 1.0
483 1.0
484 1.0
485 1.0
486 1.0
487 1.0
488 1.0
489 1.0
490 1.0
491 1.0
492 1.0
493 1.0
494 1.0
495 1.0
496 1.0
497 1.0
498 1.0
499 1.0
500 1.0
501 1.0
502 1.0
503 1.0
504 1.0
505 1.0
506 1.0
507 1.0
508 1.0
509 1.0
510 1.0
511 1.0
512 1.0
513 1.0
514 1.0
515 1.0
516 1.0
517 1.0
518 1.0
519 1.0
520 1.0
521 1.0
522 1.0
523 1.0
524 1.0
525 1.0
526 1.0
527 1.0
528 1.0
529 1.0
530 1.0
531 1.0
532 1.0
533 1.0
534 1.0
535 1.0
536 1.0
537 1.0
538 1.0
539 1.0
540 1.0
541 1.0
542 1.0
543 1.0
544 1.0
545 1.0
546 1.0
547 1.0
548 1.0
549 1.0
550 1.0
551 1.0
552 1.0
553 1.0
554 1.0
555 1.0
556 1.0
557 1.0
558 1.0
559 1.0
560 1.0
561 1.0
562 1.0
563 1.0
564 1.0
565 1.0
566 1.0
567 1.0
568 1.0
569 1.0
570 1.0
571 1.0
572 1.0
573 1.0
574 1.0
575 1.0
576 1.0

Atoms # atomic

1         1         0.200000    3.000000    5.000000    
2         2         0.200000    3.000000    11.400000   
3         2         0.200000    3.000000    11.600000   
4         3         0.200000    3.000000    17.800000   
5         3         0.200000    3.000000    18.000000   
6         4         0.200000    3.000000    24.400000   
7         4         0.200000    3.000000    24.600000   
8         1         0.200000    3.200000    4.800000    
9         1         0.200000    3.200000    5.000000    
10        1         0.200000    3.200000    5.200000    
11        2         0.200000    3.200000    11.400000   
12        2         0.200000    3.200000    11.600000   
13        2         0.200000    3.200000    11.800000   
14        3         0.200000    3.200000    17.800000   
15        3         0.200000    3.200000    18.000000   
16        3         0.200000    3.200000    18.200000   
17        4         0.200000    3.200000    24.400000   
18        4         0.200000    3.200000    24.600000   
19        4         0.200000    3.200000    24.800000   
20        1         0.200000    3.400000    4.800000    
21        1         0.200000    3.400000    5.000000    
22        1         0.200000    3.400000    5.200000    
23        2         0.200000    3.400000    11.400000   
24        2         0.200000    3.400000    11.600000   
25        2         0.200000    3.400000    11.800000   
26        3         0.200000    3.400000    17.800000   
27        3         0.200000    3.400000    18.000000   
28        3         0.200000    3.400000    18.200000   
29        3         0.200000    3.400000    18.400000   
30        4         0.200000    3.400000    24.400000   
31        4         0.200000    3.400000    24.600000   
32        4         0.200000    3.400000    24.800000   
33        1         0.200000    3.600000    4.800000    
34        1         0.200000    3.600000    5.000000    
35        1         0.200000    3.600000    5.200000    
36        2         0.200000    3.600000    11.400000   
37        2         0.200000    3.600000    11.600000   
38        2         0.200000    3.600000    11.800000   
39        3         0.200000    3.600000    17.800000   
40        3         0.200000    3.600000    18.000000   
41        3         0.200000    3.600000    18.200000   
42        4         0.200000    3.600000    24.400000   
43        4         0.200000    3.600000    24.600000   
44        4         0.200000    3.600000    24.800000   
45        1         0.200000    3.800000    5.000000    
46        1         0.200000    3.800000    5.200000    
47        2         0.200000    3.800000    11.400000   
48        2         0.200000    3.800000    11.600000   
49        3         0.200000    3.800000    17.800000   
50        3         0.200000    3.800000    18.000000   
51        3         0.200000    3.800000    18.200000   
52        4         0.200000    3.800000    24.400000   
53        4         0.200000    3.800000    24.600000   
54        5         0.200000    9.400000    8.400000    
55        8         0.200000    9.600000    1.800000    
56        8         0.200000    9.600000    2.000000    
57        5         0.200000    9.600000    8.200000    
58        5         0.200000    9.600000    8.400000    
59        5         0.200000    9.600000    8.600000    
60        6         0.200000    9.600000    14.600000   
61        6         0.200000    9.600000    14.800000   
62        6         0.200000    9.600000    15.000000   
63        7         0.200000    9.600000    21.200000   
64        7         0.200000    9.600000    21.400000   
65        8         0.200000    9.800000    1.600000    
66        8         0.200000    9.800000    1.800000    
67        8         0.200000    9.800000    2.000000    
68        5         0.200000    9.800000    8.000000    
69        5         0.200000    9.800000    8.200000    
70        5         0.200000    9.800000    8.400000    
71        5         0.200000    9.800000    8.600000    
72        6         0.200000    9.800000    14.600000   
73        6         0.200000    9.800000    14.800000   
74        6         0.200000    9.800000    15.000000   
75        7         0.200000    9.800000    21.200000   
76        7         0.200000    9.800000    21.400000   
77        7         0.200000    9.800000    21.600000   
78        8         0.200000    10.000000   1.600000    
79        8         0.200000    10.000000   1.800000    
80        8         0.200000    10.000000   2.000000    
81        5         0.200000    10.000000   8.200000    
82        5         0.200000    10.000000   8.400000    
83        5         0.200000    10.000000   8.600000    
84        6         0.200000    10.000000   14.600000   
85        6         0.200000    10.000000   14.800000   
86        6         0.200000    10.000000   15.000000   
87        7         0.200000    10.000000   21.000000   
88        7         0.200000    10.000000   21.200000   
89        7         0.200000    10.000000   21.400000   
90        7         0.200000    10.000000   21.600000   
91        8         0.200000    10.200000   1.600000    
92        8         0.200000    10.200000   1.800000    
93        8         0.200000    10.200000   2.000000    
94        5         0.200000    10.200000   8.200000    
95        5         0.200000    10.200000   8.400000    
96        6         0.200000    10.200000   14.600000   
97        6         0.200000    10.200000   14.800000   
98        6         0.200000    10.200000   15.000000   
99        7         0.200000    10.200000   21.200000   
100       7         0.200000    10.200000   21.400000   
101       8         0.200000    10.400000   1.800000    
102       8         0.200000    10.400000   2.000000    
103       5         0.200000    10.400000   8.200000    
104       5         0.200000    10.400000   8.400000    
105       6         0.200000    10.400000   14.800000   
106       6         0.200000    10.400000   15.000000   
107       7         0.200000    10.400000   21.400000   
108       9         0.200000    16.000000   5.000000    
109       10        0.200000    16.000000   11.400000   
110       10        0.200000    16.000000   11.600000   
111       11        0.200000    16.000000   18.000000   
112       12        0.200000    16.000000   24.400000   
113       12        0.200000    16.000000   24.600000   
114       9         0.200000    16.200000   4.800000    
115       9         0.200000    16.200000   5.000000    
116       9         0.200000    16.200000   5.200000    
117       10        0.200000    16.200000   11.400000   
118       10        0.200000    16.200000   11.600000   
119       10        0.200000    16.200000   11.800000   
120       11        0.200000    16.200000   17.800000   
121       11        0.200000    16.200000   18.000000   
122       11        0.200000    16.200000   18.200000   
123       12        0.200000    16.200000   24.400000   
124       12        0.200000    16.200000   24.600000   
125       12        0.200000    16.200000   24.800000   
126       9         0.200000    16.400000   4.800000    
127       9         0.200000    16.400000   5.000000    
128       9         0.200000    16.400000   5.200000    
129       10        0.200000    16.400000   11.400000   
130       10        0.200000    16.400000   11.600000   
131       10        0.200000    16.400000   11.800000   
132       11        0.200000    16.400000   17.800000   
133       11        0.200000    16.400000   18.000000   
134       11        0.200000    16.400000   18.200000   
135       12        0.200000    16.400000   24.400000   
136       12        0.200000    16.400000   24.600000   
137       12        0.200000    16.400000   24.800000   
138       9         0.200000    16.600000   4.800000    
139       9         0.200000    16.600000   5.000000    
140       9         0.200000    16.600000   5.200000    
141       10        0.200000    16.600000   11.400000   
142       10        0.200000    16.600000   11.600000   
143       10        0.200000    16.600000   11.800000   
144       11        0.200000    16.600000   17.800000   
145       11        0.200000    16.600000   18.000000   
146       11        0.200000    16.600000   18.200000   
147       12        0.200000    16.600000   24.400000   
148       12        0.200000    16.600000   24.600000   
149       12        0.200000    16.600000   24.800000   
150       9         0.200000    16.800000   4.800000    
151       9         0.200000    16.800000   5.000000    
152       10        0.200000    16.800000   11.400000   
153       10        0.200000    16.800000   11.600000   
154       11        0.200000    16.800000   17.800000   
155       11        0.200000    16.800000   18.000000   
156       11        0.200000    16.800000   18.200000   
157       12        0.200000    16.800000   24.400000   
158       12        0.200000    16.800000   24.600000   
159       14        0.200000    22.400000   15.000000   
160       15        0.200000    22.600000   1.800000    
161       15        0.200000    22.600000   2.000000    
162       13        0.200000    22.600000   8.200000    
163       13        0.200000    22.600000   8.400000    
164       14        0.200000    22.600000   14.600000   
165       14        0.200000    22.600000   14.800000   
166       14        0.200000    22.600000   15.000000   
167       16        0.200000    22.600000   21.200000   
168       16        0.200000    22.600000   21.400000   
169       15        0.200000    22.800000   1.600000    
170       15        0.200000    22.800000   1.800000    
171       15        0.200000    22.800000   2.000000    
172       13        0.200000    22.800000   8.000000    
173       13        0.200000    22.800000   8.200000    
174       13        0.200000    22.800000   8.400000    
175       13        0.200000    22.800000   8.600000    
176       14        0.200000    22.800000   14.600000   
177       14        0.200000    22.800000   14.800000   
178       14        0.200000    22.800000   15.000000   
179       16        0.200000    22.800000   21.000000   
180       16        0.200000    22.800000   21.200000   
181       16        0.200000    22.800000   21.400000   
182       16        0.200000    22.800000   21.600000   
183       15        0.200000    23.000000   1.600000    
184       15        0.200000    23.000000   1.800000    
185       15        0.200000    23.000000   2.000000    
186       13        0.200000    23.000000   8.000000    
187       13        0.200000    23.000000   8.200000    
188       13        0.200000    23.000000   8.400000    
189       13        0.200000    23.000000   8.600000    
190       14        0.200000    23.000000   14.600000   
191       14        0.200000    23.000000   14.800000   
192       14        0.200000    23.000000   15.000000   
193       16        0.200000    23.000000   21.000000   
194       16        0.200000    23.000000   21.200000   
195       16        0.200000    23.000000   21.400000   
196       16        0.200000    23.000000   21.600000   
197       15        0.200000    23.200000   1.600000    
198       15        0.200000    23.200000   1.800000    
199       15        0.200000    23.200000   2.000000    
200       13        0.200000    23.200000   8.200000    
201       13        0.200000    23.200000   8.400000    
202       13        0.200000    23.200000   8.600000    
203       14        0.200000    23.200000   14.600000   
204       14        0.200000    23.200000   14.800000   
205       14        0.200000    23.200000   15.000000   
206       16        0.200000    23.200000   21.200000   
207       16        0.200000    23.200000   21.400000   
208       16        0.200000    23.200000   21.600000   
209       15        0.200000    23.400000   1.800000    
210       13        0.200000    23.400000   8.400000    
211       16        0.200000    23.400000   21.400000   
212       1         0.400000    3.000000    5.000000    
213       1         0.400000    3.000000    5.200000    
214       2         0.400000    3.000000    11.400000   
215       3         0.400000    3.000000    18.000000   
216       3         0.400000    3.000000    18.200000   
217       4         0.400000    3.000000    24.400000   
218       1         0.400000    3.200000    5.000000    
219       1         0.400000    3.200000    5.200000    
220       1         0.400000    3.200000    5.400000    
221       2         0.400000    3.200000    11.400000   
222       2         0.400000    3.200000    11.600000   
223       3         0.400000    3.200000    18.000000   
224       3         0.400000    3.200000    18.200000   
225       3         0.400000    3.200000    18.400000   
226       4         0.400000    3.200000    24.400000   
227       4         0.400000    3.200000    24.600000   
228       1         0.400000    3.400000    4.800000    
229       1         0.400000    3.400000    5.000000    
230       1         0.400000    3.400000    5.200000    
231       2         0.400000    3.400000    11.400000   
232       2         0.400000    3.400000    11.600000   
233       2         0.400000    3.400000    11.800000   
234       3         0.400000    3.400000    17.800000   
235       3         0.400000    3.400000    18.000000   
236       3         0.400000    3.400000    18.200000   
237       3         0.400000    3.400000    18.400000   
238       4         0.400000    3.400000    24.400000   
239       4         0.400000    3.400000    24.600000   
240       4         0.400000    3.400000    24.800000   
241       1         0.400000    3.600000    4.800000    
242       1         0.400000    3.600000    5.000000    
243       1         0.400000    3.600000    5.200000    
244       2         0.400000    3.600000    11.400000   
245       2         0.400000    3.600000    11.600000   
246       2         0.400000    3.600000    11.800000   
247       3         0.400000    3.600000    17.800000   
248       3         0.400000    3.600000    18.000000   
249       3         0.400000    3.600000    18.200000   
250       4         0.400000    3.600000    24.400000   
251       4         0.400000    3.600000    24.600000   
252       4         0.400000    3.600000    24.800000   
253       1         0.400000    3.800000    4.800000    
254       1         0.400000    3.800000    5.000000    
255       2         0.400000    3.800000    11.600000   
256       3         0.400000    3.800000    17.800000   
257       3         0.400000    3.800000    18.000000   
258       4         0.400000    3.800000    24.600000   
259       4         0.400000    3.800000    24.800000   
260       22        0.400000    8.800000    15.400000   
261       8         0.400000    9.600000    1.800000    
262       8         0.400000    9.600000    2.000000    
263       5         0.400000    9.600000    8.200000    
264       5         0.400000    9.600000    8.400000    
265       6         0.400000    9.600000    14.800000   
266       6         0.400000    9.600000    15.000000   
267       7         0.400000    9.600000    21.200000   
268       8         0.400000    9.800000    1.600000    
269       8         0.400000    9.800000    1.800000    
270       8         0.400000    9.800000    2.000000    
271       5         0.400000    9.800000    8.000000    
272       5         0.400000    9.800000    8.200000    
273       5         0.400000    9.800000    8.400000    
274       6         0.400000    9.800000    14.600000   
275       6         0.400000    9.800000    14.800000   
276       6         0.400000    9.800000    15.000000   
277       7         0.400000    9.800000    21.200000   
278       7         0.400000    9.800000    21.400000   
279       8         0.400000    10.000000   1.600000    
280       8         0.400000    10.000000   1.800000    
281       8         0.400000    10.000000   2.000000    
282       5         0.400000    10.000000   8.200000    
283       5         0.400000    10.000000   8.400000    
284       6         0.400000    10.000000   14.600000   
285       6         0.400000    10.000000   14.800000   
286       6         0.400000    10.000000   15.000000   
287       7         0.400000    10.000000   21.200000   
288       7         0.400000    10.000000   21.400000   
289       8         0.400000    10.200000   1.600000    
290       8         0.400000    10.200000   1.800000    
291       8         0.400000    10.200000   2.000000    
292       5         0.400000    10.200000   8.200000    
293       5         0.400000    10.200000   8.400000    
294       5         0.400000    10.200000   8.600000    
295       6         0.400000    10.200000   14.600000   
296       6         0.400000    10.200000   14.800000   
297       7         0.400000    10.200000   21.200000   
298       7         0.400000    10.200000   21.400000   
299       7         0.400000    10.200000   21.600000   
300       5         0.400000    10.400000   8.400000    
301       7         0.400000    10.400000   21.400000   
302       23        0.400000    10.800000   8.800000    
303       10        0.400000    15.800000   11.200000   
304       10        0.400000    15.800000   11.400000   
305       10        0.400000    16.000000   11.200000   
306       10        0.400000    16.000000   11.400000   
307       10        0.400000    16.000000   11.600000   
308       12        0.400000    16.000000   24.400000   
309       12        0.400000    16.000000   24.600000   
310       9         0.400000    16.200000   5.000000    
311       9         0.400000    16.200000   5.200000    
312       10        0.400000    16.200000   11.400000   
313       10        0.400000    16.200000   11.600000   
314       11        0.400000    16.200000   18.000000   
315       11        0.400000    16.200000   18.200000   
316       11        0.400000    16.200000   18.400000   
317       12        0.400000    16.200000   24.400000   
318       12        0.400000    16.200000   24.600000   
319       9         0.400000    16.400000   4.800000    
320       9         0.400000    16.400000   5.000000    
321       9         0.400000    16.400000   5.200000    
322       10        0.400000    16.400000   11.400000   
323       10        0.400000    16.400000   11.600000   
324       10        0.400000    16.400000   11.800000   
325       11        0.400000    16.400000   18.000000   
326       11        0.400000    16.400000   18.200000   
327       12        0.400000    16.400000   24.400000   
328       12        0.400000    16.400000   24.600000   
329       12        0.400000    16.400000   24.800000   
330       9         0.400000    16.600000   4.800000    
331       9         0.400000    16.600000   5.000000    
332       9         0.400000    16.600000   5.200000    
333       10        0.400000    16.600000   11.400000   
334       10        0.400000    16.600000   11.600000   
335       10        0.400000    16.600000   11.800000   
336       11        0.400000    16.600000   17.800000   
337       11        0.400000    16.600000   18.000000   
338       11        0.400000    16.600000   18.200000   
339       12        0.400000    16.600000   24.400000   
340       12        0.400000    16.600000   24.600000   
341       12        0.400000    16.600000   24.800000   
342       9         0.400000    16.800000   4.800000    
343       9         0.400000    16.800000   5.000000    
344       10        0.400000    16.800000   11.600000   
345       10        0.400000    16.800000   11.800000   
346       11        0.400000    16.800000   17.800000   
347       11        0.400000    16.800000   18.000000   
348       9         0.400000    17.000000   5.000000    
349       27        0.400000    17.200000   4.600000    
350       27        0.400000    17.400000   4.600000    
351       15        0.400000    22.600000   1.800000    
352       15        0.400000    22.600000   2.000000    
353       13        0.400000    22.600000   8.200000    
354       13        0.400000    22.600000   8.400000    
355       14        0.400000    22.600000   14.800000   
356       14        0.400000    22.600000   15.000000   
357       16        0.400000    22.600000   21.200000   
358       16        0.400000    22.600000   21.400000   
359       15        0.400000    22.800000   1.600000    
360       15        0.400000    22.800000   1.800000    
361       15        0.400000    22.800000   2.000000    
362       13        0.400000    22.800000   8.000000    
363       13        0.400000    22.800000   8.200000    
364       13        0.400000    22.800000   8.400000    
365       14        0.400000    22.800000   14.600000   
366       14        0.400000    22.800000   14.800000   
367       14        0.400000    22.800000   15.000000   
368       16        0.400000    22.800000   21.000000   
369       16        0.400000    22.800000   21.200000   
370       16        0.400000    22.800000   21.400000   
371       15        0.400000    23.000000   1.600000    
372       15        0.400000    23.000000   1.800000    
373       15        0.400000    23.000000   2.000000    
374       13        0.400000    23.000000   8.200000    
375       13        0.400000    23.000000   8.400000    
376       13        0.400000    23.000000   8.600000    
377       14        0.400000    23.000000   14.600000   
378       14        0.400000    23.000000   14.800000   
379       14        0.400000    23.000000   15.000000   
380       16        0.400000    23.000000   21.200000   
381       16        0.400000    23.000000   21.400000   
382       16        0.400000    23.000000   21.600000   
383       15        0.400000    23.200000   1.600000    
384       15        0.400000    23.200000   1.800000    
385       13        0.400000    23.200000   8.200000    
386       13        0.400000    23.200000   8.400000    
387       13        0.400000    23.200000   8.600000    
388       14        0.400000    23.200000   14.600000   
389       14        0.400000    23.200000   14.800000   
390       14        0.400000    23.200000   15.000000   
391       16        0.400000    23.200000   21.200000   
392       16        0.400000    23.200000   21.400000   
393       16        0.400000    23.200000   21.600000   
394       13        0.400000    23.400000   8.400000    
395       13        0.400000    23.400000   8.600000    
396       16        0.400000    23.400000   21.400000   
397       16        0.400000    23.400000   21.600000   
398       17        0.600000    1.800000    10.600000   
399       17        0.600000    1.800000    10.800000   
400       18        0.600000    1.800000    23.600000   
401       18        0.600000    1.800000    23.800000   
402       17        0.600000    2.000000    10.600000   
403       17        0.600000    2.000000    10.800000   
404       17        0.600000    2.000000    11.000000   
405       18        0.600000    2.000000    23.600000   
406       18        0.600000    2.000000    23.800000   
407       18        0.600000    2.000000    24.000000   
408       17        0.600000    2.200000    10.600000   
409       17        0.600000    2.200000    10.800000   
410       17        0.600000    2.200000    11.000000   
411       18        0.600000    2.200000    23.600000   
412       18        0.600000    2.200000    23.800000   
413       18        0.600000    2.200000    24.000000   
414       17        0.600000    2.400000    10.800000   
415       17        0.600000    2.400000    11.000000   
416       17        0.600000    2.400000    11.200000   
417       18        0.600000    2.400000    23.800000   
418       18        0.600000    2.400000    24.000000   
419       17        0.600000    2.600000    11.000000   
420       17        0.600000    2.600000    11.200000   
421       18        0.600000    2.600000    24.000000   
422       1         0.600000    3.000000    5.200000    
423       3         0.600000    3.000000    18.200000   
424       3         0.600000    3.000000    18.400000   
425       1         0.600000    3.200000    5.000000    
426       1         0.600000    3.200000    5.200000    
427       1         0.600000    3.200000    5.400000    
428       3         0.600000    3.200000    18.000000   
429       3         0.600000    3.200000    18.200000   
430       3         0.600000    3.200000    18.400000   
431       1         0.600000    3.400000    5.000000    
432       1         0.600000    3.400000    5.200000    
433       2         0.600000    3.400000    11.600000   
434       3         0.600000    3.400000    18.000000   
435       3         0.600000    3.400000    18.200000   
436       4         0.600000    3.400000    24.600000   
437       2         0.600000    3.600000    11.600000   
438       2         0.600000    3.600000    11.800000   
439       3         0.600000    3.600000    18.000000   
440       4         0.600000    3.600000    24.600000   
441       4         0.600000    3.600000    24.800000   
442       2         0.600000    3.800000    11.600000   
443       4         0.600000    3.800000    24.800000   
444       19        0.600000    4.200000    4.600000    